CG-Decane VLE LAMMPS Data file created by G.Alonso

  5001 atoms
  3334 bonds

  1 atom types
  1 bond types

  0.00000  57.63000  xlo xhi
  0.00000  57.63000  ylo yhi
  0.00000  345.7800  zlo zhi

 Masses

1  47.42723         # 1-bead decane mass  

 Atoms
  
1      1      1 0.000000  -25.3245182      -25.5000000      -169.267120    
2      1      1 0.000000  -24.4354000      -25.5000000      -168.009705    
3      1      1 0.000000  -25.3245182      -25.5000000      -166.752304    
4      2      1 0.000000  -25.3245182      -25.5000000      -162.267120    
5      2      1 0.000000  -24.4354000      -25.5000000      -161.009705    
6      2      1 0.000000  -25.3245182      -25.5000000      -159.752304    
7      3      1 0.000000  -25.3245182      -25.5000000      -155.267120    
8      3      1 0.000000  -24.4354000      -25.5000000      -154.009705    
9      3      1 0.000000  -25.3245182      -25.5000000      -152.752304    
10     4      1 0.000000  -25.3245182      -25.5000000      -148.267120    
11     4      1 0.000000  -24.4354000      -25.5000000      -147.009705    
12     4      1 0.000000  -25.3245182      -25.5000000      -145.752304    
13     5      1 0.000000  -25.3245182      -25.5000000      -141.267120    
14     5      1 0.000000  -24.4354000      -25.5000000      -140.009705    
15     5      1 0.000000  -25.3245182      -25.5000000      -138.752304    
16     6      1 0.000000  -25.3245182      -25.5000000      -134.267120    
17     6      1 0.000000  -24.4354000      -25.5000000      -133.009705    
18     6      1 0.000000  -25.3245182      -25.5000000      -131.752304    
19     7      1 0.000000  -25.3245182      -25.5000000      -127.267113    
20     7      1 0.000000  -24.4354000      -25.5000000      -126.009705    
21     7      1 0.000000  -25.3245182      -25.5000000      -124.752304    
22     8      1 0.000000  -25.3245182      -25.5000000      -120.267113    
23     8      1 0.000000  -24.4354000      -25.5000000      -119.009705    
24     8      1 0.000000  -25.3245182      -25.5000000      -117.752304    
25     9      1 0.000000  -25.3245182      -25.5000000      -113.267113    
26     9      1 0.000000  -24.4354000      -25.5000000      -112.009705    
27     9      1 0.000000  -25.3245182      -25.5000000      -110.752304    
28     10     1 0.000000  -25.3245182      -25.5000000      -106.267113    
29     10     1 0.000000  -24.4354000      -25.5000000      -105.009705    
30     10     1 0.000000  -25.3245182      -25.5000000      -103.752304    
31     11     1 0.000000  -25.3245182      -25.5000000      -99.2671127    
32     11     1 0.000000  -24.4354000      -25.5000000      -98.0097046    
33     11     1 0.000000  -25.3245182      -25.5000000      -96.7523041    
34     12     1 0.000000  -25.3245182      -25.5000000      -92.2671127    
35     12     1 0.000000  -24.4354000      -25.5000000      -91.0097046    
36     12     1 0.000000  -25.3245182      -25.5000000      -89.7523041    
37     13     1 0.000000  -25.3245182      -25.5000000      -85.2671127    
38     13     1 0.000000  -24.4354000      -25.5000000      -84.0097046    
39     13     1 0.000000  -25.3245182      -25.5000000      -82.7523041    
40     14     1 0.000000  -25.3245182      -25.5000000      -78.2671127    
41     14     1 0.000000  -24.4354000      -25.5000000      -77.0097046    
42     14     1 0.000000  -25.3245182      -25.5000000      -75.7523041    
43     15     1 0.000000  -25.3245182      -25.5000000      -71.2671127    
44     15     1 0.000000  -24.4354000      -25.5000000      -70.0097046    
45     15     1 0.000000  -25.3245182      -25.5000000      -68.7523041    
46     16     1 0.000000  -25.3245182      -25.5000000      -64.2671127    
47     16     1 0.000000  -24.4354000      -25.5000000      -63.0097084    
48     16     1 0.000000  -25.3245182      -25.5000000      -61.7523041    
49     17     1 0.000000  -25.3245182      -25.5000000      -57.2671127    
50     17     1 0.000000  -24.4354000      -25.5000000      -56.0097084    
51     17     1 0.000000  -25.3245182      -25.5000000      -54.7523041    
52     18     1 0.000000  -25.3245182      -25.5000000      -50.2671127    
53     18     1 0.000000  -24.4354000      -25.5000000      -49.0097084    
54     18     1 0.000000  -25.3245182      -25.5000000      -47.7523041    
55     19     1 0.000000  -25.3245182      -25.5000000      -43.2671127    
56     19     1 0.000000  -24.4354000      -25.5000000      -42.0097084    
57     19     1 0.000000  -25.3245182      -25.5000000      -40.7523041    
58     20     1 0.000000  -25.3245182      -25.5000000      -36.2671127    
59     20     1 0.000000  -24.4354000      -25.5000000      -35.0097084    
60     20     1 0.000000  -25.3245182      -25.5000000      -33.7523041    
61     21     1 0.000000  -25.3245182      -25.5000000      -29.2671127    
62     21     1 0.000000  -24.4354000      -25.5000000      -28.0097084    
63     21     1 0.000000  -25.3245182      -25.5000000      -26.7523041    
64     22     1 0.000000  -25.3245182      -25.5000000      -22.2671127    
65     22     1 0.000000  -24.4354000      -25.5000000      -21.0097084    
66     22     1 0.000000  -25.3245182      -25.5000000      -19.7523041    
67     23     1 0.000000  -25.3245182      -25.5000000      -15.2671127    
68     23     1 0.000000  -24.4354000      -25.5000000      -14.0097084    
69     23     1 0.000000  -25.3245182      -25.5000000      -12.7523031    
70     24     1 0.000000  -25.3245182      -25.5000000      -8.26711273    
71     24     1 0.000000  -24.4354000      -25.5000000      -7.00970840    
72     24     1 0.000000  -25.3245182      -25.5000000      -5.75230360    
73     25     1 0.000000  -25.3245182      -25.5000000      -1.26711309    
74     25     1 0.000000  -24.4354000      -25.5000000      -9.70833097E-03
75     25     1 0.000000  -25.3245182      -25.5000000       1.24769640    
76     26     1 0.000000  -25.3245182      -25.5000000       5.73288679    
77     26     1 0.000000  -24.4354000      -25.5000000       6.99029160    
78     26     1 0.000000  -25.3245182      -25.5000000       8.24769688    
79     27     1 0.000000  -25.3245182      -25.5000000       12.7328873    
80     27     1 0.000000  -24.4354000      -25.5000000       13.9902916    
81     27     1 0.000000  -25.3245182      -25.5000000       15.2476969    
82     28     1 0.000000  -25.3245182      -25.5000000       19.7328873    
83     28     1 0.000000  -24.4354000      -25.5000000       20.9902916    
84     28     1 0.000000  -25.3245182      -25.5000000       22.2476959    
85     29     1 0.000000  -25.3245182      -25.5000000       26.7328873    
86     29     1 0.000000  -24.4354000      -25.5000000       27.9902916    
87     29     1 0.000000  -25.3245182      -25.5000000       29.2476959    
88     30     1 0.000000  -25.3245182      -25.5000000       33.7328873    
89     30     1 0.000000  -24.4354000      -25.5000000       34.9902916    
90     30     1 0.000000  -25.3245182      -25.5000000       36.2476959    
91     31     1 0.000000  -25.3245182      -25.5000000       40.7328873    
92     31     1 0.000000  -24.4354000      -25.5000000       41.9902916    
93     31     1 0.000000  -25.3245182      -25.5000000       43.2476959    
94     32     1 0.000000  -25.3245182      -25.5000000       47.7328873    
95     32     1 0.000000  -24.4354000      -25.5000000       48.9902916    
96     32     1 0.000000  -25.3245182      -25.5000000       50.2476959    
97     33     1 0.000000  -25.3245182      -25.5000000       54.7328873    
98     33     1 0.000000  -24.4354000      -25.5000000       55.9902916    
99     33     1 0.000000  -25.3245182      -25.5000000       57.2476959    
100    34     1 0.000000  -25.3245182      -25.5000000       61.7328873    
101    34     1 0.000000  -24.4354000      -25.5000000       62.9902916    
102    34     1 0.000000  -25.3245182      -25.5000000       64.2476959    
103    35     1 0.000000  -25.3245182      -25.5000000       68.7328873    
104    35     1 0.000000  -24.4354000      -25.5000000       69.9902954    
105    35     1 0.000000  -25.3245182      -25.5000000       71.2476959    
106    36     1 0.000000  -25.3245182      -25.5000000       75.7328873    
107    36     1 0.000000  -24.4354000      -25.5000000       76.9902954    
108    36     1 0.000000  -25.3245182      -25.5000000       78.2476959    
109    37     1 0.000000  -25.3245182      -25.5000000       82.7328873    
110    37     1 0.000000  -24.4354000      -25.5000000       83.9902954    
111    37     1 0.000000  -25.3245182      -25.5000000       85.2476959    
112    38     1 0.000000  -25.3245182      -25.5000000       89.7328873    
113    38     1 0.000000  -24.4354000      -25.5000000       90.9902954    
114    38     1 0.000000  -25.3245182      -25.5000000       92.2476959    
115    39     1 0.000000  -25.3245182      -25.5000000       96.7328873    
116    39     1 0.000000  -24.4354000      -25.5000000       97.9902954    
117    39     1 0.000000  -25.3245182      -25.5000000       99.2476959    
118    40     1 0.000000  -25.3245182      -25.5000000       103.732887    
119    40     1 0.000000  -24.4354000      -25.5000000       104.990295    
120    40     1 0.000000  -25.3245182      -25.5000000       106.247696    
121    41     1 0.000000  -25.3245182      -25.5000000       110.732887    
122    41     1 0.000000  -24.4354000      -25.5000000       111.990295    
123    41     1 0.000000  -25.3245182      -25.5000000       113.247696    
124    42     1 0.000000  -25.3245182      -25.5000000       117.732887    
125    42     1 0.000000  -24.4354000      -25.5000000       118.990295    
126    42     1 0.000000  -25.3245182      -25.5000000       120.247696    
127    43     1 0.000000  -25.3245182      -25.5000000       124.732887    
128    43     1 0.000000  -24.4354000      -25.5000000       125.990295    
129    43     1 0.000000  -25.3245182      -25.5000000       127.247696    
130    44     1 0.000000  -25.3245182      -25.5000000       131.732880    
131    44     1 0.000000  -24.4354000      -25.5000000       132.990295    
132    44     1 0.000000  -25.3245182      -25.5000000       134.247696    
133    45     1 0.000000  -25.3245182      -25.5000000       138.732880    
134    45     1 0.000000  -24.4354000      -25.5000000       139.990295    
135    45     1 0.000000  -25.3245182      -25.5000000       141.247696    
136    46     1 0.000000  -25.3245182      -25.5000000       145.732880    
137    46     1 0.000000  -24.4354000      -25.5000000       146.990295    
138    46     1 0.000000  -25.3245182      -25.5000000       148.247696    
139    47     1 0.000000  -25.3245182      -25.5000000       152.732880    
140    47     1 0.000000  -24.4354000      -25.5000000       153.990295    
141    47     1 0.000000  -25.3245182      -25.5000000       155.247696    
142    48     1 0.000000  -25.3245182      -25.5000000       159.732880    
143    48     1 0.000000  -24.4354000      -25.5000000       160.990295    
144    48     1 0.000000  -25.3245182      -25.5000000       162.247696    
145    49     1 0.000000  -25.3245182      -25.5000000       166.732880    
146    49     1 0.000000  -24.4354000      -25.5000000       167.990295    
147    49     1 0.000000  -25.3245182      -25.5000000       169.247696    
148    50     1 0.000000  -25.3245182      -22.5000000      -169.267120    
149    50     1 0.000000  -24.4354000      -22.5000000      -168.009705    
150    50     1 0.000000  -25.3245182      -22.5000000      -166.752304    
151    51     1 0.000000  -25.3245182      -22.5000000      -162.267120    
152    51     1 0.000000  -24.4354000      -22.5000000      -161.009705    
153    51     1 0.000000  -25.3245182      -22.5000000      -159.752304    
154    52     1 0.000000  -25.3245182      -22.5000000      -155.267120    
155    52     1 0.000000  -24.4354000      -22.5000000      -154.009705    
156    52     1 0.000000  -25.3245182      -22.5000000      -152.752304    
157    53     1 0.000000  -25.3245182      -22.5000000      -148.267120    
158    53     1 0.000000  -24.4354000      -22.5000000      -147.009705    
159    53     1 0.000000  -25.3245182      -22.5000000      -145.752304    
160    54     1 0.000000  -25.3245182      -22.5000000      -141.267120    
161    54     1 0.000000  -24.4354000      -22.5000000      -140.009705    
162    54     1 0.000000  -25.3245182      -22.5000000      -138.752304    
163    55     1 0.000000  -25.3245182      -22.5000000      -134.267120    
164    55     1 0.000000  -24.4354000      -22.5000000      -133.009705    
165    55     1 0.000000  -25.3245182      -22.5000000      -131.752304    
166    56     1 0.000000  -25.3245182      -22.5000000      -127.267113    
167    56     1 0.000000  -24.4354000      -22.5000000      -126.009705    
168    56     1 0.000000  -25.3245182      -22.5000000      -124.752304    
169    57     1 0.000000  -25.3245182      -22.5000000      -120.267113    
170    57     1 0.000000  -24.4354000      -22.5000000      -119.009705    
171    57     1 0.000000  -25.3245182      -22.5000000      -117.752304    
172    58     1 0.000000  -25.3245182      -22.5000000      -113.267113    
173    58     1 0.000000  -24.4354000      -22.5000000      -112.009705    
174    58     1 0.000000  -25.3245182      -22.5000000      -110.752304    
175    59     1 0.000000  -25.3245182      -22.5000000      -106.267113    
176    59     1 0.000000  -24.4354000      -22.5000000      -105.009705    
177    59     1 0.000000  -25.3245182      -22.5000000      -103.752304    
178    60     1 0.000000  -25.3245182      -22.5000000      -99.2671127    
179    60     1 0.000000  -24.4354000      -22.5000000      -98.0097046    
180    60     1 0.000000  -25.3245182      -22.5000000      -96.7523041    
181    61     1 0.000000  -25.3245182      -22.5000000      -92.2671127    
182    61     1 0.000000  -24.4354000      -22.5000000      -91.0097046    
183    61     1 0.000000  -25.3245182      -22.5000000      -89.7523041    
184    62     1 0.000000  -25.3245182      -22.5000000      -85.2671127    
185    62     1 0.000000  -24.4354000      -22.5000000      -84.0097046    
186    62     1 0.000000  -25.3245182      -22.5000000      -82.7523041    
187    63     1 0.000000  -25.3245182      -22.5000000      -78.2671127    
188    63     1 0.000000  -24.4354000      -22.5000000      -77.0097046    
189    63     1 0.000000  -25.3245182      -22.5000000      -75.7523041    
190    64     1 0.000000  -25.3245182      -22.5000000      -71.2671127    
191    64     1 0.000000  -24.4354000      -22.5000000      -70.0097046    
192    64     1 0.000000  -25.3245182      -22.5000000      -68.7523041    
193    65     1 0.000000  -25.3245182      -22.5000000      -64.2671127    
194    65     1 0.000000  -24.4354000      -22.5000000      -63.0097084    
195    65     1 0.000000  -25.3245182      -22.5000000      -61.7523041    
196    66     1 0.000000  -25.3245182      -22.5000000      -57.2671127    
197    66     1 0.000000  -24.4354000      -22.5000000      -56.0097084    
198    66     1 0.000000  -25.3245182      -22.5000000      -54.7523041    
199    67     1 0.000000  -25.3245182      -22.5000000      -50.2671127    
200    67     1 0.000000  -24.4354000      -22.5000000      -49.0097084    
201    67     1 0.000000  -25.3245182      -22.5000000      -47.7523041    
202    68     1 0.000000  -25.3245182      -22.5000000      -43.2671127    
203    68     1 0.000000  -24.4354000      -22.5000000      -42.0097084    
204    68     1 0.000000  -25.3245182      -22.5000000      -40.7523041    
205    69     1 0.000000  -25.3245182      -22.5000000      -36.2671127    
206    69     1 0.000000  -24.4354000      -22.5000000      -35.0097084    
207    69     1 0.000000  -25.3245182      -22.5000000      -33.7523041    
208    70     1 0.000000  -25.3245182      -22.5000000      -29.2671127    
209    70     1 0.000000  -24.4354000      -22.5000000      -28.0097084    
210    70     1 0.000000  -25.3245182      -22.5000000      -26.7523041    
211    71     1 0.000000  -25.3245182      -22.5000000      -22.2671127    
212    71     1 0.000000  -24.4354000      -22.5000000      -21.0097084    
213    71     1 0.000000  -25.3245182      -22.5000000      -19.7523041    
214    72     1 0.000000  -25.3245182      -22.5000000      -15.2671127    
215    72     1 0.000000  -24.4354000      -22.5000000      -14.0097084    
216    72     1 0.000000  -25.3245182      -22.5000000      -12.7523031    
217    73     1 0.000000  -25.3245182      -22.5000000      -8.26711273    
218    73     1 0.000000  -24.4354000      -22.5000000      -7.00970840    
219    73     1 0.000000  -25.3245182      -22.5000000      -5.75230360    
220    74     1 0.000000  -25.3245182      -22.5000000      -1.26711309    
221    74     1 0.000000  -24.4354000      -22.5000000      -9.70833097E-03
222    74     1 0.000000  -25.3245182      -22.5000000       1.24769640    
223    75     1 0.000000  -25.3245182      -22.5000000       5.73288679    
224    75     1 0.000000  -24.4354000      -22.5000000       6.99029160    
225    75     1 0.000000  -25.3245182      -22.5000000       8.24769688    
226    76     1 0.000000  -25.3245182      -22.5000000       12.7328873    
227    76     1 0.000000  -24.4354000      -22.5000000       13.9902916    
228    76     1 0.000000  -25.3245182      -22.5000000       15.2476969    
229    77     1 0.000000  -25.3245182      -22.5000000       19.7328873    
230    77     1 0.000000  -24.4354000      -22.5000000       20.9902916    
231    77     1 0.000000  -25.3245182      -22.5000000       22.2476959    
232    78     1 0.000000  -25.3245182      -22.5000000       26.7328873    
233    78     1 0.000000  -24.4354000      -22.5000000       27.9902916    
234    78     1 0.000000  -25.3245182      -22.5000000       29.2476959    
235    79     1 0.000000  -25.3245182      -22.5000000       33.7328873    
236    79     1 0.000000  -24.4354000      -22.5000000       34.9902916    
237    79     1 0.000000  -25.3245182      -22.5000000       36.2476959    
238    80     1 0.000000  -25.3245182      -22.5000000       40.7328873    
239    80     1 0.000000  -24.4354000      -22.5000000       41.9902916    
240    80     1 0.000000  -25.3245182      -22.5000000       43.2476959    
241    81     1 0.000000  -25.3245182      -22.5000000       47.7328873    
242    81     1 0.000000  -24.4354000      -22.5000000       48.9902916    
243    81     1 0.000000  -25.3245182      -22.5000000       50.2476959    
244    82     1 0.000000  -25.3245182      -22.5000000       54.7328873    
245    82     1 0.000000  -24.4354000      -22.5000000       55.9902916    
246    82     1 0.000000  -25.3245182      -22.5000000       57.2476959    
247    83     1 0.000000  -25.3245182      -22.5000000       61.7328873    
248    83     1 0.000000  -24.4354000      -22.5000000       62.9902916    
249    83     1 0.000000  -25.3245182      -22.5000000       64.2476959    
250    84     1 0.000000  -25.3245182      -22.5000000       68.7328873    
251    84     1 0.000000  -24.4354000      -22.5000000       69.9902954    
252    84     1 0.000000  -25.3245182      -22.5000000       71.2476959    
253    85     1 0.000000  -25.3245182      -22.5000000       75.7328873    
254    85     1 0.000000  -24.4354000      -22.5000000       76.9902954    
255    85     1 0.000000  -25.3245182      -22.5000000       78.2476959    
256    86     1 0.000000  -25.3245182      -22.5000000       82.7328873    
257    86     1 0.000000  -24.4354000      -22.5000000       83.9902954    
258    86     1 0.000000  -25.3245182      -22.5000000       85.2476959    
259    87     1 0.000000  -25.3245182      -22.5000000       89.7328873    
260    87     1 0.000000  -24.4354000      -22.5000000       90.9902954    
261    87     1 0.000000  -25.3245182      -22.5000000       92.2476959    
262    88     1 0.000000  -25.3245182      -22.5000000       96.7328873    
263    88     1 0.000000  -24.4354000      -22.5000000       97.9902954    
264    88     1 0.000000  -25.3245182      -22.5000000       99.2476959    
265    89     1 0.000000  -25.3245182      -22.5000000       103.732887    
266    89     1 0.000000  -24.4354000      -22.5000000       104.990295    
267    89     1 0.000000  -25.3245182      -22.5000000       106.247696    
268    90     1 0.000000  -25.3245182      -22.5000000       110.732887    
269    90     1 0.000000  -24.4354000      -22.5000000       111.990295    
270    90     1 0.000000  -25.3245182      -22.5000000       113.247696    
271    91     1 0.000000  -25.3245182      -22.5000000       117.732887    
272    91     1 0.000000  -24.4354000      -22.5000000       118.990295    
273    91     1 0.000000  -25.3245182      -22.5000000       120.247696    
274    92     1 0.000000  -25.3245182      -22.5000000       124.732887    
275    92     1 0.000000  -24.4354000      -22.5000000       125.990295    
276    92     1 0.000000  -25.3245182      -22.5000000       127.247696    
277    93     1 0.000000  -25.3245182      -22.5000000       131.732880    
278    93     1 0.000000  -24.4354000      -22.5000000       132.990295    
279    93     1 0.000000  -25.3245182      -22.5000000       134.247696    
280    94     1 0.000000  -25.3245182      -22.5000000       138.732880    
281    94     1 0.000000  -24.4354000      -22.5000000       139.990295    
282    94     1 0.000000  -25.3245182      -22.5000000       141.247696    
283    95     1 0.000000  -25.3245182      -22.5000000       145.732880    
284    95     1 0.000000  -24.4354000      -22.5000000       146.990295    
285    95     1 0.000000  -25.3245182      -22.5000000       148.247696    
286    96     1 0.000000  -25.3245182      -22.5000000       152.732880    
287    96     1 0.000000  -24.4354000      -22.5000000       153.990295    
288    96     1 0.000000  -25.3245182      -22.5000000       155.247696    
289    97     1 0.000000  -25.3245182      -22.5000000       159.732880    
290    97     1 0.000000  -24.4354000      -22.5000000       160.990295    
291    97     1 0.000000  -25.3245182      -22.5000000       162.247696    
292    98     1 0.000000  -25.3245182      -22.5000000       166.732880    
293    98     1 0.000000  -24.4354000      -22.5000000       167.990295    
294    98     1 0.000000  -25.3245182      -22.5000000       169.247696    
295    99     1 0.000000  -25.3245182      -19.5000000      -169.267120    
296    99     1 0.000000  -24.4354000      -19.5000000      -168.009705    
297    99     1 0.000000  -25.3245182      -19.5000000      -166.752304    
298   100     1 0.000000  -25.3245182      -19.5000000      -162.267120    
299   100     1 0.000000  -24.4354000      -19.5000000      -161.009705    
300   100     1 0.000000  -25.3245182      -19.5000000      -159.752304    
301   101     1 0.000000  -25.3245182      -19.5000000      -155.267120    
302   101     1 0.000000  -24.4354000      -19.5000000      -154.009705    
303   101     1 0.000000  -25.3245182      -19.5000000      -152.752304    
304   102     1 0.000000  -25.3245182      -19.5000000      -148.267120    
305   102     1 0.000000  -24.4354000      -19.5000000      -147.009705    
306   102     1 0.000000  -25.3245182      -19.5000000      -145.752304    
307   103     1 0.000000  -25.3245182      -19.5000000      -141.267120    
308   103     1 0.000000  -24.4354000      -19.5000000      -140.009705    
309   103     1 0.000000  -25.3245182      -19.5000000      -138.752304    
310   104     1 0.000000  -25.3245182      -19.5000000      -134.267120    
311   104     1 0.000000  -24.4354000      -19.5000000      -133.009705    
312   104     1 0.000000  -25.3245182      -19.5000000      -131.752304    
313   105     1 0.000000  -25.3245182      -19.5000000      -127.267113    
314   105     1 0.000000  -24.4354000      -19.5000000      -126.009705    
315   105     1 0.000000  -25.3245182      -19.5000000      -124.752304    
316   106     1 0.000000  -25.3245182      -19.5000000      -120.267113    
317   106     1 0.000000  -24.4354000      -19.5000000      -119.009705    
318   106     1 0.000000  -25.3245182      -19.5000000      -117.752304    
319   107     1 0.000000  -25.3245182      -19.5000000      -113.267113    
320   107     1 0.000000  -24.4354000      -19.5000000      -112.009705    
321   107     1 0.000000  -25.3245182      -19.5000000      -110.752304    
322   108     1 0.000000  -25.3245182      -19.5000000      -106.267113    
323   108     1 0.000000  -24.4354000      -19.5000000      -105.009705    
324   108     1 0.000000  -25.3245182      -19.5000000      -103.752304    
325   109     1 0.000000  -25.3245182      -19.5000000      -99.2671127    
326   109     1 0.000000  -24.4354000      -19.5000000      -98.0097046    
327   109     1 0.000000  -25.3245182      -19.5000000      -96.7523041    
328   110     1 0.000000  -25.3245182      -19.5000000      -92.2671127    
329   110     1 0.000000  -24.4354000      -19.5000000      -91.0097046    
330   110     1 0.000000  -25.3245182      -19.5000000      -89.7523041    
331   111     1 0.000000  -25.3245182      -19.5000000      -85.2671127    
332   111     1 0.000000  -24.4354000      -19.5000000      -84.0097046    
333   111     1 0.000000  -25.3245182      -19.5000000      -82.7523041    
334   112     1 0.000000  -25.3245182      -19.5000000      -78.2671127    
335   112     1 0.000000  -24.4354000      -19.5000000      -77.0097046    
336   112     1 0.000000  -25.3245182      -19.5000000      -75.7523041    
337   113     1 0.000000  -25.3245182      -19.5000000      -71.2671127    
338   113     1 0.000000  -24.4354000      -19.5000000      -70.0097046    
339   113     1 0.000000  -25.3245182      -19.5000000      -68.7523041    
340   114     1 0.000000  -25.3245182      -19.5000000      -64.2671127    
341   114     1 0.000000  -24.4354000      -19.5000000      -63.0097084    
342   114     1 0.000000  -25.3245182      -19.5000000      -61.7523041    
343   115     1 0.000000  -25.3245182      -19.5000000      -57.2671127    
344   115     1 0.000000  -24.4354000      -19.5000000      -56.0097084    
345   115     1 0.000000  -25.3245182      -19.5000000      -54.7523041    
346   116     1 0.000000  -25.3245182      -19.5000000      -50.2671127    
347   116     1 0.000000  -24.4354000      -19.5000000      -49.0097084    
348   116     1 0.000000  -25.3245182      -19.5000000      -47.7523041    
349   117     1 0.000000  -25.3245182      -19.5000000      -43.2671127    
350   117     1 0.000000  -24.4354000      -19.5000000      -42.0097084    
351   117     1 0.000000  -25.3245182      -19.5000000      -40.7523041    
352   118     1 0.000000  -25.3245182      -19.5000000      -36.2671127    
353   118     1 0.000000  -24.4354000      -19.5000000      -35.0097084    
354   118     1 0.000000  -25.3245182      -19.5000000      -33.7523041    
355   119     1 0.000000  -25.3245182      -19.5000000      -29.2671127    
356   119     1 0.000000  -24.4354000      -19.5000000      -28.0097084    
357   119     1 0.000000  -25.3245182      -19.5000000      -26.7523041    
358   120     1 0.000000  -25.3245182      -19.5000000      -22.2671127    
359   120     1 0.000000  -24.4354000      -19.5000000      -21.0097084    
360   120     1 0.000000  -25.3245182      -19.5000000      -19.7523041    
361   121     1 0.000000  -25.3245182      -19.5000000      -15.2671127    
362   121     1 0.000000  -24.4354000      -19.5000000      -14.0097084    
363   121     1 0.000000  -25.3245182      -19.5000000      -12.7523031    
364   122     1 0.000000  -25.3245182      -19.5000000      -8.26711273    
365   122     1 0.000000  -24.4354000      -19.5000000      -7.00970840    
366   122     1 0.000000  -25.3245182      -19.5000000      -5.75230360    
367   123     1 0.000000  -25.3245182      -19.5000000      -1.26711309    
368   123     1 0.000000  -24.4354000      -19.5000000      -9.70833097E-03
369   123     1 0.000000  -25.3245182      -19.5000000       1.24769640    
370   124     1 0.000000  -25.3245182      -19.5000000       5.73288679    
371   124     1 0.000000  -24.4354000      -19.5000000       6.99029160    
372   124     1 0.000000  -25.3245182      -19.5000000       8.24769688    
373   125     1 0.000000  -25.3245182      -19.5000000       12.7328873    
374   125     1 0.000000  -24.4354000      -19.5000000       13.9902916    
375   125     1 0.000000  -25.3245182      -19.5000000       15.2476969    
376   126     1 0.000000  -25.3245182      -19.5000000       19.7328873    
377   126     1 0.000000  -24.4354000      -19.5000000       20.9902916    
378   126     1 0.000000  -25.3245182      -19.5000000       22.2476959    
379   127     1 0.000000  -25.3245182      -19.5000000       26.7328873    
380   127     1 0.000000  -24.4354000      -19.5000000       27.9902916    
381   127     1 0.000000  -25.3245182      -19.5000000       29.2476959    
382   128     1 0.000000  -25.3245182      -19.5000000       33.7328873    
383   128     1 0.000000  -24.4354000      -19.5000000       34.9902916    
384   128     1 0.000000  -25.3245182      -19.5000000       36.2476959    
385   129     1 0.000000  -25.3245182      -19.5000000       40.7328873    
386   129     1 0.000000  -24.4354000      -19.5000000       41.9902916    
387   129     1 0.000000  -25.3245182      -19.5000000       43.2476959    
388   130     1 0.000000  -25.3245182      -19.5000000       47.7328873    
389   130     1 0.000000  -24.4354000      -19.5000000       48.9902916    
390   130     1 0.000000  -25.3245182      -19.5000000       50.2476959    
391   131     1 0.000000  -25.3245182      -19.5000000       54.7328873    