CG-CO2 VLE LAMMPS Data file created by G.Alonso

  3500 atoms
  1 atom types

  0.00000   46.82400  xlo xhi
  0.00000   46.82400  ylo yhi
  0.00000   208.0000  zlo zhi

 Masses

1 44.01000	  # CG-CO2 mass

 Atoms

1       1      1 0.000000  -21.0708008      -21.8512001      -99.6433487    
2       2      1 0.000000  -21.0708008      -21.8512001      -92.7100220    
3       3      1 0.000000  -21.0708008      -21.8512001      -85.7766876    
4       4      1 0.000000  -21.0708008      -21.8512001      -78.8433533    
5       5      1 0.000000  -21.0708008      -21.8512001      -71.9100189    
6       6      1 0.000000  -21.0708008      -21.8512001      -64.9766846    
7       7      1 0.000000  -21.0708008      -21.8512001      -58.0433502    
8       8      1 0.000000  -21.0708008      -21.8512001      -51.1100197    
9       9      1 0.000000  -21.0708008      -21.8512001      -44.1766853    
10      10     1 0.000000  -21.0708008      -21.8512001      -37.2433510    
11      11     1 0.000000  -21.0708008      -21.8512001      -30.3100185    
12      12     1 0.000000  -21.0708008      -21.8512001      -23.3766861    
13      13     1 0.000000  -21.0708008      -21.8512001      -16.4433517    
14      14     1 0.000000  -21.0708008      -21.8512001      -9.51001835    
15      15     1 0.000000  -21.0708008      -21.8512001      -2.57668543    
16      16     1 0.000000  -21.0708008      -21.8512001       4.35664797    
17      17     1 0.000000  -21.0708008      -21.8512001       11.2899809    
18      18     1 0.000000  -21.0708008      -21.8512001       18.2233143    
19      19     1 0.000000  -21.0708008      -21.8512001       25.1566486    
20      20     1 0.000000  -21.0708008      -21.8512001       32.0899811    
21      21     1 0.000000  -21.0708008      -21.8512001       39.0233154    
22      22     1 0.000000  -21.0708008      -21.8512001       45.9566498    
23      23     1 0.000000  -21.0708008      -21.8512001       52.8899803    
24      24     1 0.000000  -21.0708008      -21.8512001       59.8233147    
25      25     1 0.000000  -21.0708008      -21.8512001       66.7566452    
26      26     1 0.000000  -21.0708008      -21.8512001       73.6899796    
27      27     1 0.000000  -21.0708008      -21.8512001       80.6233139    
28      28     1 0.000000  -21.0708008      -21.8512001       87.5566483    
29      29     1 0.000000  -21.0708008      -21.8512001       94.4899826    
30      30     1 0.000000  -21.0708008      -21.8512001       101.423317    
31      31     1 0.000000  -21.0708008      -18.7296009      -99.6433487    
32      32     1 0.000000  -21.0708008      -18.7296009      -92.7100220    
33      33     1 0.000000  -21.0708008      -18.7296009      -85.7766876    
34      34     1 0.000000  -21.0708008      -18.7296009      -78.8433533    
35      35     1 0.000000  -21.0708008      -18.7296009      -71.9100189    
36      36     1 0.000000  -21.0708008      -18.7296009      -64.9766846    
37      37     1 0.000000  -21.0708008      -18.7296009      -58.0433502    
38      38     1 0.000000  -21.0708008      -18.7296009      -51.1100197    
39      39     1 0.000000  -21.0708008      -18.7296009      -44.1766853    
40      40     1 0.000000  -21.0708008      -18.7296009      -37.2433510    
41      41     1 0.000000  -21.0708008      -18.7296009      -30.3100185    
42      42     1 0.000000  -21.0708008      -18.7296009      -23.3766861    
43      43     1 0.000000  -21.0708008      -18.7296009      -16.4433517    
44      44     1 0.000000  -21.0708008      -18.7296009      -9.51001835    
45      45     1 0.000000  -21.0708008      -18.7296009      -2.57668543    
46      46     1 0.000000  -21.0708008      -18.7296009       4.35664797    
47      47     1 0.000000  -21.0708008      -18.7296009       11.2899809    
48      48     1 0.000000  -21.0708008      -18.7296009       18.2233143    
49      49     1 0.000000  -21.0708008      -18.7296009       25.1566486    
50      50     1 0.000000  -21.0708008      -18.7296009       32.0899811    
51      51     1 0.000000  -21.0708008      -18.7296009       39.0233154    
52      52     1 0.000000  -21.0708008      -18.7296009       45.9566498    
53      53     1 0.000000  -21.0708008      -18.7296009       52.8899803    
54      54     1 0.000000  -21.0708008      -18.7296009       59.8233147    
55      55     1 0.000000  -21.0708008      -18.7296009       66.7566452    
56      56     1 0.000000  -21.0708008      -18.7296009       73.6899796    
57      57     1 0.000000  -21.0708008      -18.7296009       80.6233139    
58      58     1 0.000000  -21.0708008      -18.7296009       87.5566483    
59      59     1 0.000000  -21.0708008      -18.7296009       94.4899826    
60      60     1 0.000000  -21.0708008      -18.7296009       101.423317    
61      61     1 0.000000  -21.0708008      -15.6079998      -99.6433487    
62      62     1 0.000000  -21.0708008      -15.6079998      -92.7100220    
63      63     1 0.000000  -21.0708008      -15.6079998      -85.7766876    
64      64     1 0.000000  -21.0708008      -15.6079998      -78.8433533    
65      65     1 0.000000  -21.0708008      -15.6079998      -71.9100189    
66      66     1 0.000000  -21.0708008      -15.6079998      -64.9766846    
67      67     1 0.000000  -21.0708008      -15.6079998      -58.0433502    
68      68     1 0.000000  -21.0708008      -15.6079998      -51.1100197    
69      69     1 0.000000  -21.0708008      -15.6079998      -44.1766853    
70      70     1 0.000000  -21.0708008      -15.6079998      -37.2433510    
71      71     1 0.000000  -21.0708008      -15.6079998      -30.3100185    
72      72     1 0.000000  -21.0708008      -15.6079998      -23.3766861    
73      73     1 0.000000  -21.0708008      -15.6079998      -16.4433517    
74      74     1 0.000000  -21.0708008      -15.6079998      -9.51001835    
75      75     1 0.000000  -21.0708008      -15.6079998      -2.57668543    
76      76     1 0.000000  -21.0708008      -15.6079998       4.35664797    
77      77     1 0.000000  -21.0708008      -15.6079998       11.2899809    
78      78     1 0.000000  -21.0708008      -15.6079998       18.2233143    
79      79     1 0.000000  -21.0708008      -15.6079998       25.1566486    
80      80     1 0.000000  -21.0708008      -15.6079998       32.0899811    
81      81     1 0.000000  -21.0708008      -15.6079998       39.0233154    
82      82     1 0.000000  -21.0708008      -15.6079998       45.9566498    
83      83     1 0.000000  -21.0708008      -15.6079998       52.8899803    
84      84     1 0.000000  -21.0708008      -15.6079998       59.8233147    
85      85     1 0.000000  -21.0708008      -15.6079998       66.7566452    
86      86     1 0.000000  -21.0708008      -15.6079998       73.6899796    
87      87     1 0.000000  -21.0708008      -15.6079998       80.6233139    
88      88     1 0.000000  -21.0708008      -15.6079998       87.5566483    
89      89     1 0.000000  -21.0708008      -15.6079998       94.4899826    
90      90     1 0.000000  -21.0708008      -15.6079998       101.423317    
91      91     1 0.000000  -21.0708008      -12.4863997      -99.6433487    
92      92     1 0.000000  -21.0708008      -12.4863997      -92.7100220    
93      93     1 0.000000  -21.0708008      -12.4863997      -85.7766876    
94      94     1 0.000000  -21.0708008      -12.4863997      -78.8433533    
95      95     1 0.000000  -21.0708008      -12.4863997      -71.9100189    
96      96     1 0.000000  -21.0708008      -12.4863997      -64.9766846    
97      97     1 0.000000  -21.0708008      -12.4863997      -58.0433502    
98      98     1 0.000000  -21.0708008      -12.4863997      -51.1100197    
99      99     1 0.000000  -21.0708008      -12.4863997      -44.1766853    
100     100    1 0.000000  -21.0708008      -12.4863997      -37.2433510    
101     101    1 0.000000  -21.0708008      -12.4863997      -30.3100185    
102     102    1 0.000000  -21.0708008      -12.4863997      -23.3766861    
103     103    1 0.000000  -21.0708008      -12.4863997      -16.4433517    
104     104    1 0.000000  -21.0708008      -12.4863997      -9.51001835    
105     105    1 0.000000  -21.0708008      -12.4863997      -2.57668543    
106     106    1 0.000000  -21.0708008      -12.4863997       4.35664797    
107     107    1 0.000000  -21.0708008      -12.4863997       11.2899809    
108     108    1 0.000000  -21.0708008      -12.4863997       18.2233143    
109     109    1 0.000000  -21.0708008      -12.4863997       25.1566486    
110     110    1 0.000000  -21.0708008      -12.4863997       32.0899811    
111     111    1 0.000000  -21.0708008      -12.4863997       39.0233154    
112     112    1 0.000000  -21.0708008      -12.4863997       45.9566498    
113     113    1 0.000000  -21.0708008      -12.4863997       52.8899803    
114     114    1 0.000000  -21.0708008      -12.4863997       59.8233147    
115     115    1 0.000000  -21.0708008      -12.4863997       66.7566452    
116     116    1 0.000000  -21.0708008      -12.4863997       73.6899796    
117     117    1 0.000000  -21.0708008      -12.4863997       80.6233139    
118     118    1 0.000000  -21.0708008      -12.4863997       87.5566483    
119     119    1 0.000000  -21.0708008      -12.4863997       94.4899826    
120     120    1 0.000000  -21.0708008      -12.4863997       101.423317    
121     121    1 0.000000  -21.0708008      -9.36480045      -99.6433487    
122     122    1 0.000000  -21.0708008      -9.36480045      -92.7100220    
123     123    1 0.000000  -21.0708008      -9.36480045      -85.7766876    
124     124    1 0.000000  -21.0708008      -9.36480045      -78.8433533    
125     125    1 0.000000  -21.0708008      -9.36480045      -71.9100189    
126     126    1 0.000000  -21.0708008      -9.36480045      -64.9766846    
127     127    1 0.000000  -21.0708008      -9.36480045      -58.0433502    
128     128    1 0.000000  -21.0708008      -9.36480045      -51.1100197    
129     129    1 0.000000  -21.0708008      -9.36480045      -44.1766853    
130     130    1 0.000000  -21.0708008      -9.36480045      -37.2433510    
131     131    1 0.000000  -21.0708008      -9.36480045      -30.3100185    
132     132    1 0.000000  -21.0708008      -9.36480045      -23.3766861    
133     133    1 0.000000  -21.0708008      -9.36480045      -16.4433517    
134     134    1 0.000000  -21.0708008      -9.36480045      -9.51001835    
135     135    1 0.000000  -21.0708008      -9.36480045      -2.57668543    
136     136    1 0.000000  -21.0708008      -9.36480045       4.35664797    
137     137    1 0.000000  -21.0708008      -9.36480045       11.2899809    
138     138    1 0.000000  -21.0708008      -9.36480045       18.2233143    
139     139    1 0.000000  -21.0708008      -9.36480045       25.1566486    
140     140    1 0.000000  -21.0708008      -9.36480045       32.0899811    
141     141    1 0.000000  -21.0708008      -9.36480045       39.0233154    
142     142    1 0.000000  -21.0708008      -9.36480045       45.9566498    
143     143    1 0.000000  -21.0708008      -9.36480045       52.8899803    
144     144    1 0.000000  -21.0708008      -9.36480045       59.8233147    
145     145    1 0.000000  -21.0708008      -9.36480045       66.7566452    
146     146    1 0.000000  -21.0708008      -9.36480045       73.6899796    
147     147    1 0.000000  -21.0708008      -9.36480045       80.6233139    
148     148    1 0.000000  -21.0708008      -9.36480045       87.5566483    
149     149    1 0.000000  -21.0708008      -9.36480045       94.4899826    
150     150    1 0.000000  -21.0708008      -9.36480045       101.423317    
151     151    1 0.000000  -21.0708008      -6.24319983      -99.6433487    
152     152    1 0.000000  -21.0708008      -6.24319983      -92.7100220    
153     153    1 0.000000  -21.0708008      -6.24319983      -85.7766876    
154     154    1 0.000000  -21.0708008      -6.24319983      -78.8433533    
155     155    1 0.000000  -21.0708008      -6.24319983      -71.9100189    
156     156    1 0.000000  -21.0708008      -6.24319983      -64.9766846    
157     157    1 0.000000  -21.0708008      -6.24319983      -58.0433502    
158     158    1 0.000000  -21.0708008      -6.24319983      -51.1100197    
159     159    1 0.000000  -21.0708008      -6.24319983      -44.1766853    
160     160    1 0.000000  -21.0708008      -6.24319983      -37.2433510    
161     161    1 0.000000  -21.0708008      -6.24319983      -30.3100185    
162     162    1 0.000000  -21.0708008      -6.24319983      -23.3766861    
163     163    1 0.000000  -21.0708008      -6.24319983      -16.4433517    
164     164    1 0.000000  -21.0708008      -6.24319983      -9.51001835    
165     165    1 0.000000  -21.0708008      -6.24319983      -2.57668543    
166     166    1 0.000000  -21.0708008      -6.24319983       4.35664797    
167     167    1 0.000000  -21.0708008      -6.24319983       11.2899809    
168     168    1 0.000000  -21.0708008      -6.24319983       18.2233143    
169     169    1 0.000000  -21.0708008      -6.24319983       25.1566486    
170     170    1 0.000000  -21.0708008      -6.24319983       32.0899811    
171     171    1 0.000000  -21.0708008      -6.24319983       39.0233154    
172     172    1 0.000000  -21.0708008      -6.24319983       45.9566498    
173     173    1 0.000000  -21.0708008      -6.24319983       52.8899803    
174     174    1 0.000000  -21.0708008      -6.24319983       59.8233147    
175     175    1 0.000000  -21.0708008      -6.24319983       66.7566452    
176     176    1 0.000000  -21.0708008      -6.24319983       73.6899796    
177     177    1 0.000000  -21.0708008      -6.24319983       80.6233139    
178     178    1 0.000000  -21.0708008      -6.24319983       87.5566483    
179     179    1 0.000000  -21.0708008      -6.24319983       94.4899826    
180     180    1 0.000000  -21.0708008      -6.24319983       101.423317    
181     181    1 0.000000  -21.0708008      -3.12159991      -99.6433487    
182     182    1 0.000000  -21.0708008      -3.12159991      -92.7100220    
183     183    1 0.000000  -21.0708008      -3.12159991      -85.7766876    
184     184    1 0.000000  -21.0708008      -3.12159991      -78.8433533    
185     185    1 0.000000  -21.0708008      -3.12159991      -71.9100189    
186     186    1 0.000000  -21.0708008      -3.12159991      -64.9766846    
187     187    1 0.000000  -21.0708008      -3.12159991      -58.0433502    
188     188    1 0.000000  -21.0708008      -3.12159991      -51.1100197    
189     189    1 0.000000  -21.0708008      -3.12159991      -44.1766853    
190     190    1 0.000000  -21.0708008      -3.12159991      -37.2433510    
191     191    1 0.000000  -21.0708008      -3.12159991      -30.3100185    
192     192    1 0.000000  -21.0708008      -3.12159991      -23.3766861    
193     193    1 0.000000  -21.0708008      -3.12159991      -16.4433517    
194     194    1 0.000000  -21.0708008      -3.12159991      -9.51001835    
195     195    1 0.000000  -21.0708008      -3.12159991      -2.57668543    
196     196    1 0.000000  -21.0708008      -3.12159991       4.35664797    
197     197    1 0.000000  -21.0708008      -3.12159991       11.2899809    
198     198    1 0.000000  -21.0708008      -3.12159991       18.2233143    
199     199    1 0.000000  -21.0708008      -3.12159991       25.1566486    
200     200    1 0.000000  -21.0708008      -3.12159991       32.0899811    
201     201    1 0.000000  -21.0708008      -3.12159991       39.0233154    
202     202    1 0.000000  -21.0708008      -3.12159991       45.9566498    
203     203    1 0.000000  -21.0708008      -3.12159991       52.8899803    
204     204    1 0.000000  -21.0708008      -3.12159991       59.8233147    
205     205    1 0.000000  -21.0708008      -3.12159991       66.7566452    
206     206    1 0.000000  -21.0708008      -3.12159991       73.6899796    
207     207    1 0.000000  -21.0708008      -3.12159991       80.6233139    
208     208    1 0.000000  -21.0708008      -3.12159991       87.5566483    
209     209    1 0.000000  -21.0708008      -3.12159991       94.4899826    
210     210    1 0.000000  -21.0708008      -3.12159991       101.423317    
211     211    1 0.000000  -21.0708008       0.00000000      -99.6433487    
212     212    1 0.000000  -21.0708008       0.00000000      -92.7100220    
213     213    1 0.000000  -21.0708008       0.00000000      -85.7766876    
214     214    1 0.000000  -21.0708008       0.00000000      -78.8433533    
215     215    1 0.000000  -21.0708008       0.00000000      -71.9100189    
216     216    1 0.000000  -21.0708008       0.00000000      -64.9766846    
217     217    1 0.000000  -21.0708008       0.00000000      -58.0433502    
218     218    1 0.000000  -21.0708008       0.00000000      -51.1100197    
219     219    1 0.000000  -21.0708008       0.00000000      -44.1766853    
220     220    1 0.000000  -21.0708008       0.00000000      -37.2433510    
221     221    1 0.000000  -21.0708008       0.00000000      -30.3100185    
222     222    1 0.000000  -21.0708008       0.00000000      -23.3766861    
223     223    1 0.000000  -21.0708008       0.00000000      -16.4433517    
224     224    1 0.000000  -21.0708008       0.00000000      -9.51001835    
225     225    1 0.000000  -21.0708008       0.00000000      -2.57668543    
226     226    1 0.000000  -21.0708008       0.00000000       4.35664797    
227     227    1 0.000000  -21.0708008       0.00000000       11.2899809    
228     228    1 0.000000  -21.0708008       0.00000000       18.2233143    
229     229    1 0.000000  -21.0708008       0.00000000       25.1566486    
230     230    1 0.000000  -21.0708008       0.00000000       32.0899811    
231     231    1 0.000000  -21.0708008       0.00000000       39.0233154    
232     232    1 0.000000  -21.0708008       0.00000000       45.9566498    
233     233    1 0.000000  -21.0708008       0.00000000       52.8899803    
234     234    1 0.000000  -21.0708008       0.00000000       59.8233147    
235     235    1 0.000000  -21.0708008       0.00000000       66.7566452    
236     236    1 0.000000  -21.0708008       0.00000000       73.6899796    
237     237    1 0.000000  -21.0708008       0.00000000       80.6233139    
238     238    1 0.000000  -21.0708008       0.00000000       87.5566483    
239     239    1 0.000000  -21.0708008       0.00000000       94.4899826    
240     240    1 0.000000  -21.0708008       0.00000000       101.423317    
241     241    1 0.000000  -21.0708008       3.12159991      -99.6433487    
242     242    1 0.000000  -21.0708008       3.12159991      -92.7100220    
243     243    1 0.000000  -21.0708008       3.12159991      -85.7766876    
244     244    1 0.000000  -21.0708008       3.12159991      -78.8433533    
245     245    1 0.000000  -21.0708008       3.12159991      -71.9100189    
246     246    1 0.000000  -21.0708008       3.12159991      -64.9766846    
247     247    1 0.000000  -21.0708008       3.12159991      -58.0433502    
248     248    1 0.000000  -21.0708008       3.12159991      -51.1100197    
249     249    1 0.000000  -21.0708008       3.12159991      -44.1766853    
250     250    1 0.000000  -21.0708008       3.12159991      -37.2433510    
251     251    1 0.000000  -21.0708008       3.12159991      -30.3100185    
252     252    1 0.000000  -21.0708008       3.12159991      -23.3766861    
253     253    1 0.000000  -21.0708008       3.12159991      -16.4433517    
254     254    1 0.000000  -21.0708008       3.12159991      -9.51001835    
255     255    1 0.000000  -21.0708008       3.12159991      -2.57668543    
256     256    1 0.000000  -21.0708008       3.12159991       4.35664797    
257     257    1 0.000000  -21.0708008       3.12159991       11.2899809    
258     258    1 0.000000  -21.0708008       3.12159991       18.2233143    
259     259    1 0.000000  -21.0708008       3.12159991       25.1566486    
260     260    1 0.000000  -21.0708008       3.12159991       32.0899811    
261     261    1 0.000000  -21.0708008       3.12159991       39.0233154    
262     262    1 0.000000  -21.0708008       3.12159991       45.9566498    
263     263    1 0.000000  -21.0708008       3.12159991       52.8899803    
264     264    1 0.000000  -21.0708008       3.12159991       59.8233147    
265     265    1 0.000000  -21.0708008       3.12159991       66.7566452    
266     266    1 0.000000  -21.0708008       3.12159991       73.6899796    
267     267    1 0.000000  -21.0708008       3.12159991       80.6233139    
268     268    1 0.000000  -21.0708008       3.12159991       87.5566483    
269     269    1 0.000000  -21.0708008       3.12159991       94.4899826    
270     270    1 0.000000  -21.0708008       3.12159991       101.423317    
271     271    1 0.000000  -21.0708008       6.24319983      -99.6433487    
272     272    1 0.000000  -21.0708008       6.24319983      -92.7100220    
273     273    1 0.000000  -21.0708008       6.24319983      -85.7766876    
274     274    1 0.000000  -21.0708008       6.24319983      -78.8433533    
275     275    1 0.000000  -21.0708008       6.24319983      -71.9100189    
276     276    1 0.000000  -21.0708008       6.24319983      -64.9766846    
277     277    1 0.000000  -21.0708008       6.24319983      -58.0433502    
278     278    1 0.000000  -21.0708008       6.24319983      -51.1100197    
279     279    1 0.000000  -21.0708008       6.24319983      -44.1766853    
280     280    1 0.000000  -21.0708008       6.24319983      -37.2433510    
281     281    1 0.000000  -21.0708008       6.24319983      -30.3100185    
282     282    1 0.000000  -21.0708008       6.24319983      -23.3766861    
283     283    1 0.000000  -21.0708008       6.24319983      -16.4433517    
284     284    1 0.000000  -21.0708008       6.24319983      -9.51001835    
285     285    1 0.000000  -21.0708008       6.24319983      -2.57668543    
286     286    1 0.000000  -21.0708008       6.24319983       4.35664797    
287     287    1 0.000000  -21.0708008       6.24319983       11.2899809    
288     288    1 0.000000  -21.0708008       6.24319983       18.2233143    
289     289    1 0.000000  -21.0708008       6.24319983       25.1566486    
290     290    1 0.000000  -21.0708008       6.24319983       32.0899811    
291     291    1 0.000000  -21.0708008       6.24319983       39.0233154    
292     292    1 0.000000  -21.0708008       6.24319983       45.9566498    
293     293    1 0.000000  -21.0708008       6.24319983       52.8899803    
294     294    1 0.000000  -21.0708008       6.24319983       59.8233147    
295     295    1 0.000000  -21.0708008       6.24319983       66.7566452    
296     296    1 0.000000  -21.0708008       6.24319983       73.6899796    
297     297    1 0.000000  -21.0708008       6.24319983       80.6233139    
298     298    1 0.000000  -21.0708008       6.24319983       87.5566483    
299     299    1 0.000000  -21.0708008       6.24319983       94.4899826    
300     300    1 0.000000  -21.0708008       6.24319983       101.423317    
301     301    1 0.000000  -21.0708008       9.36480045      -99.6433487    
302     302    1 0.000000  -21.0708008       9.36480045      -92.7100220    
303     303    1 0.000000  -21.0708008       9.36480045      -85.7766876    
304     304    1 0.000000  -21.0708008       9.36480045      -78.8433533    
305     305    1 0.000000  -21.0708008       9.36480045      -71.9100189    
306     306    1 0.000000  -21.0708008       9.36480045      -64.9766846    
307     307    1 0.000000  -21.0708008       9.36480045      -58.0433502    
308     308    1 0.000000  -21.0708008       9.36480045      -51.1100197    
309     309    1 0.000000  -21.0708008       9.36480045      -44.1766853    
310     310    1 0.000000  -21.0708008       9.36480045      -37.2433510    
311     311    1 0.000000  -21.0708008       9.36480045      -30.3100185    
312     312    1 0.000000  -21.0708008       9.36480045      -23.3766861    
313     313    1 0.000000  -21.0708008       9.36480045      -16.4433517    
314     314    1 0.000000  -21.0708008       9.36480045      -9.51001835    
315     315    1 0.000000  -21.0708008       9.36480045      -2.57668543    
316     316    1 0.000000  -21.0708008       9.36480045       4.35664797    
317     317    1 0.000000  -21.0708008       9.36480045       11.2899809    
318     318    1 0.000000  -21.0708008       9.36480045       18.2233143    
319     319    1 0.000000  -21.0708008       9.36480045       25.1566486    
320     320    1 0.000000  -21.0708008       9.36480045       32.0899811    
321     321    1 0.000000  -21.0708008       9.36480045       39.0233154    
322     322    1 0.000000  -21.0708008       9.36480045       45.9566498    
323     323    1 0.000000  -21.0708008       9.36480045       52.8899803    
324     324    1 0.000000  -21.0708008       9.36480045       59.8233147    
325     325    1 0.000000  -21.0708008       9.36480045       66.7566452    
326     326    1 0.000000  -21.0708008       9.36480045       73.6899796    
327     327    1 0.000000  -21.0708008       9.36480045       80.6233139    
328     328    1 0.000000  -21.0708008       9.36480045       87.5566483    
329     329    1 0.000000  -21.0708008       9.36480045       94.4899826    
330     330    1 0.000000  -21.0708008       9.36480045       101.423317    
331     331    1 0.000000  -21.0708008       12.4863997      -99.6433487    
332     332    1 0.000000  -21.0708008       12.4863997      -92.7100220    
333     333    1 0.000000  -21.0708008       12.4863997      -85.7766876    
334     334    1 0.000000  -21.0708008       12.4863997      -78.8433533    
335     335    1 0.000000  -21.0708008       12.4863997      -71.9100189    
336     336    1 0.000000  -21.0708008       12.4863997      -64.9766846    
337     337    1 0.000000  -21.0708008       12.4863997      -58.0433502    
338     338    1 0.000000  -21.0708008       12.4863997      -51.1100197    
339     339    1 0.000000  -21.0708008       12.4863997      -44.1766853    
340     340    1 0.000000  -21.0708008       12.4863997      -37.2433510    
341     341    1 0.000000  -21.0708008       12.4863997      -30.3100185    
342     342    1 0.000000  -21.0708008       12.4863997      -23.3766861    
343     343    1 0.000000  -21.0708008       12.4863997      -16.4433517    
344     344    1 0.000000  -21.0708008       12.4863997      -9.51001835    
345     345    1 0.000000  -21.0708008       12.4863997      -2.57668543    
346     346    1 0.000000  -21.0708008       12.4863997       4.35664797    
347     347    1 0.000000  -21.0708008       12.4863997       11.2899809    
348     348    1 0.000000  -21.0708008       12.4863997       18.2233143    
349     349    1 0.000000  -21.0708008       12.4863997       25.1566486    
350     350    1 0.000000  -21.0708008       12.4863997       32.0899811    
351     351    1 0.000000  -21.0708008       12.4863997       39.0233154    
352     352    1 0.000000  -21.0708008       12.4863997       45.9566498    
353     353    1 0.000000  -21.0708008       12.4863997       52.8899803    
354     354    1 0.000000  -21.0708008       12.4863997       59.8233147    
355     355    1 0.000000  -21.0708008       12.4863997       66.7566452    
356     356    1 0.000000  -21.0708008       12.4863997       73.6899796    
357     357    1 0.000000  -21.0708008       12.4863997       80.6233139    
358     358    1 0.000000  -21.0708008       12.4863997       87.5566483    
359     359    1 0.000000  -21.0708008       12.4863997       94.4899826    
360     360    1 0.000000  -21.0708008       12.4863997       101.423317    
361     361    1 0.000000  -21.0708008       15.6079998      -99.6433487    
362     362    1 0.000000  -21.0708008       15.6079998      -92.7100220    
363     363    1 0.000000  -21.0708008       15.6079998      -85.7766876    
364     364    1 0.000000  -21.0708008       15.6079998      -78.8433533    
365     365    1 0.000000  -21.0708008       15.6079998      -71.9100189    
366     366    1 0.000000  -21.0708008       15.6079998      -64.9766846    
367     367    1 0.000000  -21.0708008       15.6079998      -58.0433502    
368     368    1 0.000000  -21.0708008       15.6079998      -51.1100197    
369     369    1 0.000000  -21.0708008       15.6079998      -44.1766853    
370     370    1 0.000000  -21.0708008       15.6079998      -37.2433510    
371     371    1 0.000000  -21.0708008       15.6079998      -30.3100185    
372     372    1 0.000000  -21.0708008       15.6079998      -23.3766861    
373     373    1 0.000000  -21.0708008       15.6079998      -16.4433517    
374     374    1 0.000000  -21.0708008       15.6079998      -9.51001835    
375     375    1 0.000000  -21.0708008       15.6079998      -2.57668543    
376     376    1 0.000000  -21.0708008       15.6079998       4.35664797    
377     377    1 0.000000  -21.0708008       15.6079998       11.2899809    
378     378    1 0.000000  -21.0708008       15.6079998       18.2233143    
379     379    1 0.000000  -21.0708008       15.6079998       25.1566486    
380     380    1 0.000000  -21.0708008       15.6079998       32.0899811    
381     381    1 0.000000  -21.0708008       15.6079998       39.0233154    
382     382    1 0.000000  -21.0708008       15.6079998       45.9566498    
383     383    1 0.000000  -21.0708008       15.6079998       52.8899803    
384     384    1 0.000000  -21.0708008       15.6079998       59.8233147    
385     385    1 0.000000  -21.0708008       15.6079998       66.7566452    
386     386    1 0.000000  -21.0708008       15.6079998       73.6899796    