CG-CO2+Decane VLE LAMMPS Data file created by G.Alonso

  6000 atoms
  2496 bonds

  2 atom types
  1 bond types

 -38.2500  38.2500 xlo xhi
 -38.2500  38.2500 ylo yhi
-229.5000 229.5000 zlo zhi

 Masses

 1   44.0095000      # CG-CO2 mass
 2   47.4272333      # 1-bead decane mass

 Atoms
  
1     1      1    0.000000  -32.1308174       17.5200005      -207.282227    
2     2      1    0.000000  -32.1308174       17.5200005      -201.282227    
3     3      1    0.000000  -32.1308174       17.5200005      -195.282227    
4     4      1    0.000000  -32.1308174       17.5200005      -171.982224    
5     5      1    0.000000  -32.1308174       17.5200005      -165.982224    
6     6      1    0.000000  -32.1308174       17.5200005      -159.982224    
7     7      1    0.000000  -32.1308174       17.5200005      -136.682220    
8     8      1    0.000000  -32.1308174       17.5200005      -130.682220    
9     9      1    0.000000  -32.1308174       17.5200005      -124.682220    
10    10     1    0.000000  -32.1308174       17.5200005      -101.382225    
11    11     1    0.000000  -32.1308174       17.5200005      -95.3822250    
12    12     1    0.000000  -32.1308174       17.5200005      -89.3822250    
13    13     1    0.000000  -32.1308174       17.5200005      -66.0822220    
14    14     1    0.000000  -32.1308174       17.5200005      -60.0822220    
15    15     1    0.000000  -32.1308174       17.5200005      -54.0822220    
16    16     1    0.000000  -32.1308174       17.5200005      -30.7822208    
17    17     1    0.000000  -32.1308174       17.5200005      -24.7822208    
18    18     1    0.000000  -32.1308174       17.5200005      -18.7822208    
19    19     1    0.000000  -32.1308174       17.5200005       4.51777840    
20    20     1    0.000000  -32.1308174       17.5200005       10.5177784    
21    21     1    0.000000  -32.1308174       17.5200005       16.5177784    
22    22     1    0.000000  -32.1308174       17.5200005       39.8177795    
23    23     1    0.000000  -32.1308174       17.5200005       45.8177795    
24    24     1    0.000000  -32.1308174       17.5200005       51.8177795    
25    25     1    0.000000  -32.1308174       17.5200005       75.1177750    
26    26     1    0.000000  -32.1308174       17.5200005       81.1177750    
27    27     1    0.000000  -32.1308174       17.5200005       87.1177750    
28    28     1    0.000000  -32.1308174       17.5200005       110.417778    
29    29     1    0.000000  -32.1308174       17.5200005       116.417778    
30    30     1    0.000000  -32.1308174       17.5200005       122.417778    
31    31     1    0.000000  -32.1308174       17.5200005       145.717773    
32    32     1    0.000000  -32.1308174       17.5200005       151.717773    
33    33     1    0.000000  -32.1308174       17.5200005       157.717773    
34    34     1    0.000000  -32.1308174       17.5200005       181.017776    
35    35     1    0.000000  -32.1308174       17.5200005       187.017776    
36    36     1    0.000000  -32.1308174       17.5200005       193.017776    
37    37     1    0.000000  -32.1308174       17.5200005       216.317780    
38    38     1    0.000000  -32.1308174       17.5200005       222.317780    
39    39     1    0.000000  -32.1308174       17.5200005       228.317780    
40    40     1    0.000000  -32.1308174       27.0799999      -207.282227    
41    41     1    0.000000  -32.1308174       27.0799999      -201.282227    
42    42     1    0.000000  -32.1308174       27.0799999      -195.282227    
43    43     1    0.000000  -32.1308174       27.0799999      -171.982224    
44    44     1    0.000000  -32.1308174       27.0799999      -165.982224    
45    45     1    0.000000  -32.1308174       27.0799999      -159.982224    
46    46     1    0.000000  -32.1308174       27.0799999      -136.682220    
47    47     1    0.000000  -32.1308174       27.0799999      -130.682220    
48    48     1    0.000000  -32.1308174       27.0799999      -124.682220    
49    49     1    0.000000  -32.1308174       27.0799999      -101.382225    
50    50     1    0.000000  -32.1308174       27.0799999      -95.3822250    
51    51     1    0.000000  -32.1308174       27.0799999      -89.3822250    
52    52     1    0.000000  -32.1308174       27.0799999      -66.0822220    
53    53     1    0.000000  -32.1308174       27.0799999      -60.0822220    
54    54     1    0.000000  -32.1308174       27.0799999      -54.0822220    
55    55     1    0.000000  -32.1308174       27.0799999      -30.7822208    
56    56     1    0.000000  -32.1308174       27.0799999      -24.7822208    
57    57     1    0.000000  -32.1308174       27.0799999      -18.7822208    
58    58     1    0.000000  -32.1308174       27.0799999       4.51777840    
59    59     1    0.000000  -32.1308174       27.0799999       10.5177784    
60    60     1    0.000000  -32.1308174       27.0799999       16.5177784    
61    61     1    0.000000  -32.1308174       27.0799999       39.8177795    
62    62     1    0.000000  -32.1308174       27.0799999       45.8177795    
63    63     1    0.000000  -32.1308174       27.0799999       51.8177795    
64    64     1    0.000000  -32.1308174       27.0799999       75.1177750    
65    65     1    0.000000  -32.1308174       27.0799999       81.1177750    
66    66     1    0.000000  -32.1308174       27.0799999       87.1177750    
67    67     1    0.000000  -32.1308174       27.0799999       110.417778    
68    68     1    0.000000  -32.1308174       27.0799999       116.417778    
69    69     1    0.000000  -32.1308174       27.0799999       122.417778    
70    70     1    0.000000  -32.1308174       27.0799999       145.717773    
71    71     1    0.000000  -32.1308174       27.0799999       151.717773    
72    72     1    0.000000  -32.1308174       27.0799999       157.717773    
73    73     1    0.000000  -32.1308174       27.0799999       181.017776    
74    74     1    0.000000  -32.1308174       27.0799999       187.017776    
75    75     1    0.000000  -32.1308174       27.0799999       193.017776    
76    76     1    0.000000  -32.1308174       27.0799999       216.317780    
77    77     1    0.000000  -32.1308174       27.0799999       222.317780    
78    78     1    0.000000  -32.1308174       27.0799999       228.317780    
79    79     1    0.000000  -32.1308174       36.6399994      -207.282227    
80    80     1    0.000000  -32.1308174       36.6399994      -201.282227    
81    81     1    0.000000  -32.1308174       36.6399994      -195.282227    
82    82     1    0.000000  -32.1308174       36.6399994      -171.982224    
83    83     1    0.000000  -32.1308174       36.6399994      -165.982224    
84    84     1    0.000000  -32.1308174       36.6399994      -159.982224    
85    85     1    0.000000  -32.1308174       36.6399994      -136.682220    
86    86     1    0.000000  -32.1308174       36.6399994      -130.682220    
87    87     1    0.000000  -32.1308174       36.6399994      -124.682220    
88    88     1    0.000000  -32.1308174       36.6399994      -101.382225    
89    89     1    0.000000  -32.1308174       36.6399994      -95.3822250    
90    90     1    0.000000  -32.1308174       36.6399994      -89.3822250    
91    91     1    0.000000  -32.1308174       36.6399994      -66.0822220    
92    92     1    0.000000  -32.1308174       36.6399994      -60.0822220    
93    93     1    0.000000  -32.1308174       36.6399994      -54.0822220    
94    94     1    0.000000  -32.1308174       36.6399994      -30.7822208    
95    95     1    0.000000  -32.1308174       36.6399994      -24.7822208    
96    96     1    0.000000  -32.1308174       36.6399994      -18.7822208    
97    97     1    0.000000  -32.1308174       36.6399994       4.51777840    
98    98     1    0.000000  -32.1308174       36.6399994       10.5177784    
99    99     1    0.000000  -32.1308174       36.6399994       16.5177784    
100   100    1    0.000000  -32.1308174       36.6399994       39.8177795    
101   101    1    0.000000  -32.1308174       36.6399994       45.8177795    
102   102    1    0.000000  -32.1308174       36.6399994       51.8177795    
103   103    1    0.000000  -32.1308174       36.6399994       75.1177750    
104   104    1    0.000000  -32.1308174       36.6399994       81.1177750    
105   105    1    0.000000  -32.1308174       36.6399994       87.1177750    
106   106    1    0.000000  -32.1308174       36.6399994       110.417778    
107   107    1    0.000000  -32.1308174       36.6399994       116.417778    
108   108    1    0.000000  -32.1308174       36.6399994       122.417778    
109   109    1    0.000000  -32.1308174       36.6399994       145.717773    
110   110    1    0.000000  -32.1308174       36.6399994       151.717773    
111   111    1    0.000000  -32.1308174       36.6399994       157.717773    
112   112    1    0.000000  -32.1308174       36.6399994       181.017776    
113   113    1    0.000000  -32.1308174       36.6399994       187.017776    
114   114    1    0.000000  -32.1308174       36.6399994       193.017776    
115   115    1    0.000000  -32.1308174       36.6399994       216.317780    
116   116    1    0.000000  -32.1308174       36.6399994       222.317780    
117   117    1    0.000000  -32.1308174       36.6399994       228.317780    
118   118    1    0.000000  -32.1308174      -30.2800007      -207.282227    
119   119    1    0.000000  -32.1308174      -30.2800007      -201.282227    
120   120    1    0.000000  -32.1308174      -30.2800007      -195.282227    
121   121    1    0.000000  -32.1308174      -30.2800007      -171.982224    
122   122    1    0.000000  -32.1308174      -30.2800007      -165.982224    
123   123    1    0.000000  -32.1308174      -30.2800007      -159.982224    
124   124    1    0.000000  -32.1308174      -30.2800007      -136.682220    
125   125    1    0.000000  -32.1308174      -30.2800007      -130.682220    
126   126    1    0.000000  -32.1308174      -30.2800007      -124.682220    
127   127    1    0.000000  -32.1308174      -30.2800007      -101.382225    
128   128    1    0.000000  -32.1308174      -30.2800007      -95.3822250    
129   129    1    0.000000  -32.1308174      -30.2800007      -89.3822250    
130   130    1    0.000000  -32.1308174      -30.2800007      -66.0822220    
131   131    1    0.000000  -32.1308174      -30.2800007      -60.0822220    
132   132    1    0.000000  -32.1308174      -30.2800007      -54.0822220    
133   133    1    0.000000  -32.1308174      -30.2800007      -30.7822208    
134   134    1    0.000000  -32.1308174      -30.2800007      -24.7822208    
135   135    1    0.000000  -32.1308174      -30.2800007      -18.7822208    
136   136    1    0.000000  -32.1308174      -30.2800007       4.51777840    
137   137    1    0.000000  -32.1308174      -30.2800007       10.5177784    
138   138    1    0.000000  -32.1308174      -30.2800007       16.5177784    
139   139    1    0.000000  -32.1308174      -30.2800007       39.8177795    
140   140    1    0.000000  -32.1308174      -30.2800007       45.8177795    
141   141    1    0.000000  -32.1308174      -30.2800007       51.8177795    
142   142    1    0.000000  -32.1308174      -30.2800007       75.1177750    
143   143    1    0.000000  -32.1308174      -30.2800007       81.1177750    
144   144    1    0.000000  -32.1308174      -30.2800007       87.1177750    
145   145    1    0.000000  -32.1308174      -30.2800007       110.417778    
146   146    1    0.000000  -32.1308174      -30.2800007       116.417778    
147   147    1    0.000000  -32.1308174      -30.2800007       122.417778    
148   148    1    0.000000  -32.1308174      -30.2800007       145.717773    
149   149    1    0.000000  -32.1308174      -30.2800007       151.717773    
150   150    1    0.000000  -32.1308174      -30.2800007       157.717773    
151   151    1    0.000000  -32.1308174      -30.2800007       181.017776    
152   152    1    0.000000  -32.1308174      -30.2800007       187.017776    
153   153    1    0.000000  -32.1308174      -30.2800007       193.017776    
154   154    1    0.000000  -32.1308174      -30.2800007       216.317780    
155   155    1    0.000000  -32.1308174      -30.2800007       222.317780    
156   156    1    0.000000  -32.1308174      -30.2800007       228.317780    
157   157    1    0.000000  -32.1308174      -20.7199993      -207.282227    
158   158    1    0.000000  -32.1308174      -20.7199993      -201.282227    
159   159    1    0.000000  -32.1308174      -20.7199993      -195.282227    
160   160    1    0.000000  -32.1308174      -20.7199993      -171.982224    
161   161    1    0.000000  -32.1308174      -20.7199993      -165.982224    
162   162    1    0.000000  -32.1308174      -20.7199993      -159.982224    
163   163    1    0.000000  -32.1308174      -20.7199993      -136.682220    
164   164    1    0.000000  -32.1308174      -20.7199993      -130.682220    
165   165    1    0.000000  -32.1308174      -20.7199993      -124.682220    
166   166    1    0.000000  -32.1308174      -20.7199993      -101.382225    
167   167    1    0.000000  -32.1308174      -20.7199993      -95.3822250    
168   168    1    0.000000  -32.1308174      -20.7199993      -89.3822250    
169   169    1    0.000000  -32.1308174      -20.7199993      -66.0822220    
170   170    1    0.000000  -32.1308174      -20.7199993      -60.0822220    
171   171    1    0.000000  -32.1308174      -20.7199993      -54.0822220    
172   172    1    0.000000  -32.1308174      -20.7199993      -30.7822208    
173   173    1    0.000000  -32.1308174      -20.7199993      -24.7822208    
174   174    1    0.000000  -32.1308174      -20.7199993      -18.7822208    
175   175    1    0.000000  -32.1308174      -20.7199993       4.51777840    
176   176    1    0.000000  -32.1308174      -20.7199993       10.5177784    
177   177    1    0.000000  -32.1308174      -20.7199993       16.5177784    
178   178    1    0.000000  -32.1308174      -20.7199993       39.8177795    
179   179    1    0.000000  -32.1308174      -20.7199993       45.8177795    
180   180    1    0.000000  -32.1308174      -20.7199993       51.8177795    
181   181    1    0.000000  -32.1308174      -20.7199993       75.1177750    
182   182    1    0.000000  -32.1308174      -20.7199993       81.1177750    
183   183    1    0.000000  -32.1308174      -20.7199993       87.1177750    
184   184    1    0.000000  -32.1308174      -20.7199993       110.417778    
185   185    1    0.000000  -32.1308174      -20.7199993       116.417778    
186   186    1    0.000000  -32.1308174      -20.7199993       122.417778    
187   187    1    0.000000  -32.1308174      -20.7199993       145.717773    
188   188    1    0.000000  -32.1308174      -20.7199993       151.717773    
189   189    1    0.000000  -32.1308174      -20.7199993       157.717773    
190   190    1    0.000000  -32.1308174      -20.7199993       181.017776    
191   191    1    0.000000  -32.1308174      -20.7199993       187.017776    
192   192    1    0.000000  -32.1308174      -20.7199993       193.017776    
193   193    1    0.000000  -32.1308174      -20.7199993       216.317780    
194   194    1    0.000000  -32.1308174      -20.7199993       222.317780    
195   195    1    0.000000  -32.1308174      -20.7199993       228.317780    
196   196    1    0.000000  -32.1308174      -11.1599998      -207.282227    
197   197    1    0.000000  -32.1308174      -11.1599998      -201.282227    
198   198    1    0.000000  -32.1308174      -11.1599998      -195.282227    
199   199    1    0.000000  -32.1308174      -11.1599998      -171.982224    
200   200    1    0.000000  -32.1308174      -11.1599998      -165.982224    
201   201    1    0.000000  -32.1308174      -11.1599998      -159.982224    
202   202    1    0.000000  -32.1308174      -11.1599998      -136.682220    
203   203    1    0.000000  -32.1308174      -11.1599998      -130.682220    
204   204    1    0.000000  -32.1308174      -11.1599998      -124.682220    
205   205    1    0.000000  -32.1308174      -11.1599998      -101.382225    
206   206    1    0.000000  -32.1308174      -11.1599998      -95.3822250    
207   207    1    0.000000  -32.1308174      -11.1599998      -89.3822250    
208   208    1    0.000000  -32.1308174      -11.1599998      -66.0822220    
209   209    1    0.000000  -32.1308174      -11.1599998      -60.0822220    
210   210    1    0.000000  -32.1308174      -11.1599998      -54.0822220    
211   211    1    0.000000  -32.1308174      -11.1599998      -30.7822208    
212   212    1    0.000000  -32.1308174      -11.1599998      -24.7822208    
213   213    1    0.000000  -32.1308174      -11.1599998      -18.7822208    
214   214    1    0.000000  -32.1308174      -11.1599998       4.51777840    
215   215    1    0.000000  -32.1308174      -11.1599998       10.5177784    
216   216    1    0.000000  -32.1308174      -11.1599998       16.5177784    
217   217    1    0.000000  -32.1308174      -11.1599998       39.8177795    
218   218    1    0.000000  -32.1308174      -11.1599998       45.8177795    
219   219    1    0.000000  -32.1308174      -11.1599998       51.8177795    
220   220    1    0.000000  -32.1308174      -11.1599998       75.1177750    
221   221    1    0.000000  -32.1308174      -11.1599998       81.1177750    
222   222    1    0.000000  -32.1308174      -11.1599998       87.1177750    
223   223    1    0.000000  -32.1308174      -11.1599998       110.417778    
224   224    1    0.000000  -32.1308174      -11.1599998       116.417778    
225   225    1    0.000000  -32.1308174      -11.1599998       122.417778    
226   226    1    0.000000  -32.1308174      -11.1599998       145.717773    
227   227    1    0.000000  -32.1308174      -11.1599998       151.717773    
228   228    1    0.000000  -32.1308174      -11.1599998       157.717773    
229   229    1    0.000000  -32.1308174      -11.1599998       181.017776    
230   230    1    0.000000  -32.1308174      -11.1599998       187.017776    
231   231    1    0.000000  -32.1308174      -11.1599998       193.017776    
232   232    1    0.000000  -32.1308174      -11.1599998       216.317780    
233   233    1    0.000000  -32.1308174      -11.1599998       222.317780    
234   234    1    0.000000  -32.1308174      -11.1599998       228.317780    
235   235    1    0.000000  -32.1308174      -1.60000002      -207.282227    
236   236    1    0.000000  -32.1308174      -1.60000002      -201.282227    
237   237    1    0.000000  -32.1308174      -1.60000002      -195.282227    
238   238    1    0.000000  -32.1308174      -1.60000002      -171.982224    
239   239    1    0.000000  -32.1308174      -1.60000002      -165.982224    
240   240    1    0.000000  -32.1308174      -1.60000002      -159.982224    
241   241    1    0.000000  -32.1308174      -1.60000002      -136.682220    
242   242    1    0.000000  -32.1308174      -1.60000002      -130.682220    
243   243    1    0.000000  -32.1308174      -1.60000002      -124.682220    
244   244    1    0.000000  -32.1308174      -1.60000002      -101.382225    
245   245    1    0.000000  -32.1308174      -1.60000002      -95.3822250    
246   246    1    0.000000  -32.1308174      -1.60000002      -89.3822250    
247   247    1    0.000000  -32.1308174      -1.60000002      -66.0822220    
248   248    1    0.000000  -32.1308174      -1.60000002      -60.0822220    
249   249    1    0.000000  -32.1308174      -1.60000002      -54.0822220    
250   250    1    0.000000  -32.1308174      -1.60000002      -30.7822208    
251   251    1    0.000000  -32.1308174      -1.60000002      -24.7822208    
252   252    1    0.000000  -32.1308174      -1.60000002      -18.7822208    
253   253    1    0.000000  -32.1308174      -1.60000002       4.51777840    
254   254    1    0.000000  -32.1308174      -1.60000002       10.5177784    
255   255    1    0.000000  -32.1308174      -1.60000002       16.5177784    
256   256    1    0.000000  -32.1308174      -1.60000002       39.8177795    
257   257    1    0.000000  -32.1308174      -1.60000002       45.8177795    
258   258    1    0.000000  -32.1308174      -1.60000002       51.8177795    
259   259    1    0.000000  -32.1308174      -1.60000002       75.1177750    
260   260    1    0.000000  -32.1308174      -1.60000002       81.1177750    
261   261    1    0.000000  -32.1308174      -1.60000002       87.1177750    
262   262    1    0.000000  -32.1308174      -1.60000002       110.417778    
263   263    1    0.000000  -32.1308174      -1.60000002       116.417778    
264   264    1    0.000000  -32.1308174      -1.60000002       122.417778    
265   265    1    0.000000  -32.1308174      -1.60000002       145.717773    
266   266    1    0.000000  -32.1308174      -1.60000002       151.717773    
267   267    1    0.000000  -32.1308174      -1.60000002       157.717773    
268   268    1    0.000000  -32.1308174      -1.60000002       181.017776    
269   269    1    0.000000  -32.1308174      -1.60000002       187.017776    
270   270    1    0.000000  -32.1308174      -1.60000002       193.017776    
271   271    1    0.000000  -32.1308174      -1.60000002       216.317780    
272   272    1    0.000000  -32.1308174      -1.60000002       222.317780    
273   273    1    0.000000  -32.1308174      -1.60000002       228.317780    
274   274    1    0.000000  -32.1308174       7.96000004      -207.282227    
275   275    1    0.000000  -32.1308174       7.96000004      -201.282227    
276   276    1    0.000000  -32.1308174       7.96000004      -195.282227    
277   277    1    0.000000  -32.1308174       7.96000004      -171.982224    
278   278    1    0.000000  -32.1308174       7.96000004      -165.982224    
279   279    1    0.000000  -32.1308174       7.96000004      -159.982224    
280   280    1    0.000000  -32.1308174       7.96000004      -136.682220    
281   281    1    0.000000  -32.1308174       7.96000004      -130.682220    
282   282    1    0.000000  -32.1308174       7.96000004      -124.682220    
283   283    1    0.000000  -32.1308174       7.96000004      -101.382225    
284   284    1    0.000000  -32.1308174       7.96000004      -95.3822250    
285   285    1    0.000000  -32.1308174       7.96000004      -89.3822250    
286   286    1    0.000000  -32.1308174       7.96000004      -66.0822220    
287   287    1    0.000000  -32.1308174       7.96000004      -60.0822220    
288   288    1    0.000000  -32.1308174       7.96000004      -54.0822220    
289   289    1    0.000000  -32.1308174       7.96000004      -30.7822208    
290   290    1    0.000000  -32.1308174       7.96000004      -24.7822208    
291   291    1    0.000000  -32.1308174       7.96000004      -18.7822208    
292   292    1    0.000000  -32.1308174       7.96000004       4.51777840    
293   293    1    0.000000  -32.1308174       7.96000004       10.5177784    
294   294    1    0.000000  -32.1308174       7.96000004       16.5177784    
295   295    1    0.000000  -32.1308174       7.96000004       39.8177795    
296   296    1    0.000000  -32.1308174       7.96000004       45.8177795    
297   297    1    0.000000  -32.1308174       7.96000004       51.8177795    
298   298    1    0.000000  -32.1308174       7.96000004       75.1177750    
299   299    1    0.000000  -32.1308174       7.96000004       81.1177750    
300   300    1    0.000000  -32.1308174       7.96000004       87.1177750    
301   301    1    0.000000  -32.1308174       7.96000004       110.417778    
302   302    1    0.000000  -32.1308174       7.96000004       116.417778    
303   303    1    0.000000  -32.1308174       7.96000004       122.417778    
304   304    1    0.000000  -32.1308174       7.96000004       145.717773    
305   305    1    0.000000  -32.1308174       7.96000004       151.717773    
306   306    1    0.000000  -32.1308174       7.96000004       157.717773    
307   307    1    0.000000  -32.1308174       7.96000004       181.017776    
308   308    1    0.000000  -32.1308174       7.96000004       187.017776    
309   309    1    0.000000  -32.1308174       7.96000004       193.017776    
310   310    1    0.000000  -32.1308174       7.96000004       216.317780    
311   311    1    0.000000  -32.1308174       7.96000004       222.317780    
312   312    1    0.000000  -32.1308174       7.96000004       228.317780    
313   313    1    0.000000  -22.5708179       17.5200005      -207.282227    
314   314    1    0.000000  -22.5708179       17.5200005      -201.282227    
315   315    1    0.000000  -22.5708179       17.5200005      -195.282227    
316   316    1    0.000000  -22.5708179       17.5200005      -171.982224    
317   317    1    0.000000  -22.5708179       17.5200005      -165.982224    
318   318    1    0.000000  -22.5708179       17.5200005      -159.982224    
319   319    1    0.000000  -22.5708179       17.5200005      -136.682220    
320   320    1    0.000000  -22.5708179       17.5200005      -130.682220    
321   321    1    0.000000  -22.5708179       17.5200005      -124.682220    
322   322    1    0.000000  -22.5708179       17.5200005      -101.382225    
323   323    1    0.000000  -22.5708179       17.5200005      -95.3822250    
324   324    1    0.000000  -22.5708179       17.5200005      -89.3822250    
325   325    1    0.000000  -22.5708179       17.5200005      -66.0822220    
326   326    1    0.000000  -22.5708179       17.5200005      -60.0822220    
327   327    1    0.000000  -22.5708179       17.5200005      -54.0822220    
328   328    1    0.000000  -22.5708179       17.5200005      -30.7822208    
329   329    1    0.000000  -22.5708179       17.5200005      -24.7822208    
330   330    1    0.000000  -22.5708179       17.5200005      -18.7822208    
331   331    1    0.000000  -22.5708179       17.5200005       4.51777840    
332   332    1    0.000000  -22.5708179       17.5200005       10.5177784    
333   333    1    0.000000  -22.5708179       17.5200005       16.5177784    
334   334    1    0.000000  -22.5708179       17.5200005       39.8177795    
335   335    1    0.000000  -22.5708179       17.5200005       45.8177795    
336   336    1    0.000000  -22.5708179       17.5200005       51.8177795    
337   337    1    0.000000  -22.5708179       17.5200005       75.1177750    
338   338    1    0.000000  -22.5708179       17.5200005       81.1177750    
339   339    1    0.000000  -22.5708179       17.5200005       87.1177750    
340   340    1    0.000000  -22.5708179       17.5200005       110.417778    
341   341    1    0.000000  -22.5708179       17.5200005       116.417778    
342   342    1    0.000000  -22.5708179       17.5200005       122.417778    
343   343    1    0.000000  -22.5708179       17.5200005       145.717773    
344   344    1    0.000000  -22.5708179       17.5200005       151.717773    
345   345    1    0.000000  -22.5708179       17.5200005       157.717773    
346   346    1    0.000000  -22.5708179       17.5200005       181.017776    
347   347    1    0.000000  -22.5708179       17.5200005       187.017776    
348   348    1    0.000000  -22.5708179       17.5200005       193.017776    
349   349    1    0.000000  -22.5708179       17.5200005       216.317780    
350   350    1    0.000000  -22.5708179       17.5200005       222.317780    
351   351    1    0.000000  -22.5708179       17.5200005       228.317780    
352   352    1    0.000000  -22.5708179       27.0799999      -207.282227    
353   353    1    0.000000  -22.5708179       27.0799999      -201.282227    
354   354    1    0.000000  -22.5708179       27.0799999      -195.282227    
355   355    1    0.000000  -22.5708179       27.0799999      -171.982224    
356   356    1    0.000000  -22.5708179       27.0799999      -165.982224    
357   357    1    0.000000  -22.5708179       27.0799999      -159.982224    
358   358    1    0.000000  -22.5708179       27.0799999      -136.682220    
359   359    1    0.000000  -22.5708179       27.0799999      -130.682220    
360   360    1    0.000000  -22.5708179       27.0799999      -124.682220    
361   361    1    0.000000  -22.5708179       27.0799999      -101.382225    
362   362    1    0.000000  -22.5708179       27.0799999      -95.3822250    
363   363    1    0.000000  -22.5708179       27.0799999      -89.3822250    
364   364    1    0.000000  -22.5708179       27.0799999      -66.0822220    
365   365    1    0.000000  -22.5708179       27.0799999      -60.0822220    
366   366    1    0.000000  -22.5708179       27.0799999      -54.0822220    
367   367    1    0.000000  -22.5708179       27.0799999      -30.7822208    
368   368    1    0.000000  -22.5708179       27.0799999      -24.7822208    
369   369    1    0.000000  -22.5708179       27.0799999      -18.7822208    
370   370    1    0.000000  -22.5708179       27.0799999       4.51777840    
371   371    1    0.000000  -22.5708179       27.0799999       10.5177784    
372   372    1    0.000000  -22.5708179       27.0799999       16.5177784    
373   373    1    0.000000  -22.5708179       27.0799999       39.8177795    
374   374    1    0.000000  -22.5708179       27.0799999       45.8177795    
375   375    1    0.000000  -22.5708179       27.0799999       51.8177795    
376   376    1    0.000000  -22.5708179       27.0799999       75.1177750    
377   377    1    0.000000  -22.5708179       27.0799999       81.1177750    
378   378    1    0.000000  -22.5708179       27.0799999       87.1177750    
379   379    1    0.000000  -22.5708179       27.0799999       110.417778    
380   380    1    0.000000  -22.5708179       27.0799999       116.417778    